                                                                                     
                             WELCOME TO ABACUS                                       
                                                                                     
               'Atomic-orbital Based Ab-initio Computation at UStc'                  
                                                                                     
                     Website: http://abacus.ustc.edu.cn/                             
                                                                                     
    Version: Parallel, in development
    Processor Number is 2
    Start Time is Thu Jul 28 16:21:05 2022
                                                                                     
 ------------------------------------------------------------------------------------

 READING GENERAL INFORMATION
                           global_out_dir = OUT.ABACUS/
                           global_in_card = INPUT
                               pseudo_dir = 
                              orbital_dir = 
                              pseudo_type = auto
                                    DRANK = 1
                                    DSIZE = 2
                                   DCOLOR = 1
                                    GRANK = 1
                                    GSIZE = 1




 >>>>>>>>>>>>>>>>>>>>>>>>>>>>>>>>>>>>>>>>>>>>>>>>>>>>>>>>>>>>>>>>>>>>>>
 |                                                                    |
 | Reading atom information in unitcell:                              |
 | From the input file and the structure file we know the number of   |
 | different elments in this unitcell, then we list the detail        |
 | information for each element, especially the zeta and polar atomic |
 | orbital number for each element. The total atom number is counted. |
 | We calculate the nearest atom distance for each atom and show the  |
 | Cartesian and Direct coordinates for each atom. We list the file   |
 | address for atomic orbitals. The volume and the lattice vectors    |
 | in real and reciprocal space is also shown.                        |
 |                                                                    |
 <<<<<<<<<<<<<<<<<<<<<<<<<<<<<<<<<<<<<<<<<<<<<<<<<<<<<<<<<<<<<<<<<<<<<<




 READING UNITCELL INFORMATION
                                    ntype = 1
                 atom label for species 1 = Al
                  lattice constant (Bohr) = 1.88973
              lattice constant (Angstrom) = 1

 READING ATOM TYPE 1
                               atom label = Al
                      L=0, number of zeta = 3
                      L=1, number of zeta = 3
                      L=2, number of zeta = 2
             number of atom for this type = 4
                      start magnetization = FALSE
                      start magnetization = FALSE
                      start magnetization = FALSE
                      start magnetization = FALSE

                        TOTAL ATOM NUMBER = 4

 DIRECT COORDINATES
         atom                   x                   y                   z                 mag                  vx                  vy                  vz
     taud_Al1                   0                   0                   0                   0                   0                   0                   0
     taud_Al2                   0                 0.5                 0.5                   0                   0                   0                   0
     taud_Al3                 0.5                   0                 0.5                   0                   0                   0                   0
     taud_Al4                 0.5                 0.5                   0                   0                   0                   0                   0


 READING ORBITAL FILE NAMES FOR LCAO
 orbital file: Al_gga_10au_100Ry_3s3p2d.orb

                          Volume (Bohr^3) = 454.138
                             Volume (A^3) = 67.2963

 Lattice vectors: (Cartesian coordinate: in unit of a_0)
             +4.06753                  +0                  +0
                   +0            +4.06753                  +0
                   +0                  +0            +4.06753
 Reciprocal vectors: (Cartesian coordinate: in unit of 2 pi/a_0)
             +0.24585                  -0                  +0
                   +0            +0.24585                  -0
                   +0                  -0            +0.24585




 >>>>>>>>>>>>>>>>>>>>>>>>>>>>>>>>>>>>>>>>>>>>>>>>>>>>>>>>>>>>>>>>>>>>>>
 |                                                                    |
 | Reading pseudopotentials files:                                    |
 | The pseudopotential file is in UPF format. The 'NC' indicates that |
 | the type of pseudopotential is 'norm conserving'. Functional of    |
 | exchange and correlation is decided by 4 given parameters in UPF   |
 | file.  We also read in the 'core correction' if there exists.      |
 | Also we can read the valence electrons number and the maximal      |
 | angular momentum used in this pseudopotential. We also read in the |
 | trail wave function, trail atomic density and local-pseudopotential|
 | on logrithmic grid. The non-local pseudopotential projector is also|
 | read in if there is any.                                           |
 |                                                                    |
 <<<<<<<<<<<<<<<<<<<<<<<<<<<<<<<<<<<<<<<<<<<<<<<<<<<<<<<<<<<<<<<<<<<<<<




                PAO radial cut off (Bohr) = 15

 Read in pseudopotential file is Al.PD04.PBE.UPF
                     pseudopotential type = NC
          exchange-correlation functional = PBE
                 nonlocal core correction = 1
                        valence electrons = 3
                                     lmax = 2
                           number of zeta = 2
                     number of projectors = 6
                           L of projector = 0
                           L of projector = 0
                           L of projector = 1
                           L of projector = 1
                           L of projector = 2
                           L of projector = 2
     initial pseudo atomic orbital number = 16
                                   NLOCAL = 88




 >>>>>>>>>>>>>>>>>>>>>>>>>>>>>>>>>>>>>>>>>>>>>>>>>>>>>>>>>>>>>>>>>>>>>>
 |                                                                    |
 | Setup plane waves of charge/potential:                             |
 | Use the energy cutoff and the lattice vectors to generate the      |
 | dimensions of FFT grid. The number of FFT grid on each processor   |
 | is 'nrxx'. The number of plane wave basis in reciprocal space is   |
 | different for charege/potential and wave functions. We also set    |
 | the 'sticks' for the parallel of FFT. The number of plane waves    |
 | is 'npw' in each processor.                                        |
 <<<<<<<<<<<<<<<<<<<<<<<<<<<<<<<<<<<<<<<<<<<<<<<<<<<<<<<<<<<<<<<<<<<<<<





 SETUP THE PLANE WAVE BASIS
 energy cutoff for charge/potential (unit:Ry) = 80
          [fft grid for charge/potential] = 24, 24, 24
                      [fft grid division] = 2, 2, 2
      [big fft grid for charge/potential] = 12, 12, 12
                                     nbxx = 864
                                     nrxx = 6912

 SETUP PLANE WAVES FOR CHARGE/POTENTIAL
                    number of plane waves = 5449
                         number of sticks = 373

 PARALLEL PW FOR CHARGE/POTENTIAL
     PROC   COLUMNS(POT)             PW
        1            186           2724
        2            187           2725
 --------------- sum -------------------
        2            373           5449
                            number of |g| = 101
                                  max |g| = 7.13216
                                  min |g| = 0

 SETUP THE ELECTRONS NUMBER
            electron number of element Al = 3
      total electron number of element Al = 12
                           occupied bands = 6
                                   NLOCAL = 88
                                   NBANDS = 16
                                   NBANDS = 16
 DONE : SETUP UNITCELL Time : 0.0364871 (SEC)





 >>>>>>>>>>>>>>>>>>>>>>>>>>>>>>>>>>>>>>>>>>>>>>>>>>>>>>>>>>>>>>>>>>>>>>
 |                                                                    |
 | Setup K-points                                                     |
 | We setup the k-points according to input parameters.               |
 | The reduced k-points are set according to symmetry operations.     |
 | We treat the spin as another set of k-points.                      |
 |                                                                    |
 <<<<<<<<<<<<<<<<<<<<<<<<<<<<<<<<<<<<<<<<<<<<<<<<<<<<<<<<<<<<<<<<<<<<<<





 SETUP K-POINTS
                                    nspin = 1
                   Input type of k points = Monkhorst-Pack(Gamma)
                                   nkstot = 64
                               nkstot_ibz = 36
      IBZ             DirectX             DirectY             DirectZ              Weight    ibz2bz
        1                   0                   0                   0            0.015625         0
        2                0.75                   0                   0             0.03125         1
        3                 0.5                   0                   0            0.015625         2
        4                   0                0.75                   0             0.03125         4
        5                0.75                0.75                   0             0.03125         5
        6                 0.5                0.75                   0             0.03125         6
        7                0.25                0.75                   0             0.03125         7
        8                   0                 0.5                   0            0.015625         8
        9                0.75                 0.5                   0             0.03125         9
       10                 0.5                 0.5                   0            0.015625        10
       11                   0                   0                0.75             0.03125        16
       12                0.75                   0                0.75             0.03125        17
       13                 0.5                   0                0.75             0.03125        18
       14                0.25                   0                0.75             0.03125        19
       15                   0                0.75                0.75             0.03125        20
       16                0.75                0.75                0.75             0.03125        21
       17                 0.5                0.75                0.75             0.03125        22
       18                0.25                0.75                0.75             0.03125        23
       19                   0                 0.5                0.75             0.03125        24
       20                0.75                 0.5                0.75             0.03125        25
       21                 0.5                 0.5                0.75             0.03125        26
       22                0.25                 0.5                0.75             0.03125        27
       23                   0                0.25                0.75             0.03125        28
       24                0.75                0.25                0.75             0.03125        29
       25                 0.5                0.25                0.75             0.03125        30
       26                0.25                0.25                0.75             0.03125        31
       27                   0                   0                 0.5            0.015625        32
       28                0.75                   0                 0.5             0.03125        33
       29                 0.5                   0                 0.5            0.015625        34
       30                   0                0.75                 0.5             0.03125        36
       31                0.75                0.75                 0.5             0.03125        37
       32                 0.5                0.75                 0.5             0.03125        38
       33                0.25                0.75                 0.5             0.03125        39
       34                   0                 0.5                 0.5            0.015625        40
       35                0.75                 0.5                 0.5             0.03125        41
       36                 0.5                 0.5                 0.5            0.015625        42
                               nkstot now = 36

  KPOINTS            DIRECT_X            DIRECT_Y            DIRECT_Z              WEIGHT
        1                   0                   0                   0            0.015625
        2                0.75                   0                   0             0.03125
        3                 0.5                   0                   0            0.015625
        4                   0                0.75                   0             0.03125
        5                0.75                0.75                   0             0.03125
        6                 0.5                0.75                   0             0.03125
        7                0.25                0.75                   0             0.03125
        8                   0                 0.5                   0            0.015625
        9                0.75                 0.5                   0             0.03125
       10                 0.5                 0.5                   0            0.015625
       11                   0                   0                0.75             0.03125
       12                0.75                   0                0.75             0.03125
       13                 0.5                   0                0.75             0.03125
       14                0.25                   0                0.75             0.03125
       15                   0                0.75                0.75             0.03125
       16                0.75                0.75                0.75             0.03125
       17                 0.5                0.75                0.75             0.03125
       18                0.25                0.75                0.75             0.03125
       19                   0                 0.5                0.75             0.03125
       20                0.75                 0.5                0.75             0.03125
       21                 0.5                 0.5                0.75             0.03125
       22                0.25                 0.5                0.75             0.03125
       23                   0                0.25                0.75             0.03125
       24                0.75                0.25                0.75             0.03125
       25                 0.5                0.25                0.75             0.03125
       26                0.25                0.25                0.75             0.03125
       27                   0                   0                 0.5            0.015625
       28                0.75                   0                 0.5             0.03125
       29                 0.5                   0                 0.5            0.015625
       30                   0                0.75                 0.5             0.03125
       31                0.75                0.75                 0.5             0.03125
       32                 0.5                0.75                 0.5             0.03125
       33                0.25                0.75                 0.5             0.03125
       34                   0                 0.5                 0.5            0.015625
       35                0.75                 0.5                 0.5             0.03125
       36                 0.5                 0.5                 0.5            0.015625

           k-point number in this process = 36
       minimum distributed K point number = 36

  KPOINTS         CARTESIAN_X         CARTESIAN_Y         CARTESIAN_Z              WEIGHT
        1                   0                   0                   0             0.03125
        2            0.184387                   0                   0              0.0625
        3            0.122925                   0                   0             0.03125
        4                   0            0.184387                   0              0.0625
        5            0.184387            0.184387                   0              0.0625
        6            0.122925            0.184387                   0              0.0625
        7           0.0614624            0.184387                   0              0.0625
        8                   0            0.122925                   0             0.03125
        9            0.184387            0.122925                   0              0.0625
       10            0.122925            0.122925                   0             0.03125
       11                   0                   0            0.184387              0.0625
       12            0.184387                   0            0.184387              0.0625
       13            0.122925                   0            0.184387              0.0625
       14           0.0614624                   0            0.184387              0.0625
       15                   0            0.184387            0.184387              0.0625
       16            0.184387            0.184387            0.184387              0.0625
       17            0.122925            0.184387            0.184387              0.0625
       18           0.0614624            0.184387            0.184387              0.0625
       19                   0            0.122925            0.184387              0.0625
       20            0.184387            0.122925            0.184387              0.0625
       21            0.122925            0.122925            0.184387              0.0625
       22           0.0614624            0.122925            0.184387              0.0625
       23                   0           0.0614624            0.184387              0.0625
       24            0.184387           0.0614624            0.184387              0.0625
       25            0.122925           0.0614624            0.184387              0.0625
       26           0.0614624           0.0614624            0.184387              0.0625
       27                   0                   0            0.122925             0.03125
       28            0.184387                   0            0.122925              0.0625
       29            0.122925                   0            0.122925             0.03125
       30                   0            0.184387            0.122925              0.0625
       31            0.184387            0.184387            0.122925              0.0625
       32            0.122925            0.184387            0.122925              0.0625
       33           0.0614624            0.184387            0.122925              0.0625
       34                   0            0.122925            0.122925             0.03125
       35            0.184387            0.122925            0.122925              0.0625
       36            0.122925            0.122925            0.122925             0.03125

  KPOINTS            DIRECT_X            DIRECT_Y            DIRECT_Z              WEIGHT
        1                   0                   0                   0             0.03125
        2                0.75                   0                   0              0.0625
        3                 0.5                   0                   0             0.03125
        4                   0                0.75                   0              0.0625
        5                0.75                0.75                   0              0.0625
        6                 0.5                0.75                   0              0.0625
        7                0.25                0.75                   0              0.0625
        8                   0                 0.5                   0             0.03125
        9                0.75                 0.5                   0              0.0625
       10                 0.5                 0.5                   0             0.03125
       11                   0                   0                0.75              0.0625
       12                0.75                   0                0.75              0.0625
       13                 0.5                   0                0.75              0.0625
       14                0.25                   0                0.75              0.0625
       15                   0                0.75                0.75              0.0625
       16                0.75                0.75                0.75              0.0625
       17                 0.5                0.75                0.75              0.0625
       18                0.25                0.75                0.75              0.0625
       19                   0                 0.5                0.75              0.0625
       20                0.75                 0.5                0.75              0.0625
       21                 0.5                 0.5                0.75              0.0625
       22                0.25                 0.5                0.75              0.0625
       23                   0                0.25                0.75              0.0625
       24                0.75                0.25                0.75              0.0625
       25                 0.5                0.25                0.75              0.0625
       26                0.25                0.25                0.75              0.0625
       27                   0                   0                 0.5             0.03125
       28                0.75                   0                 0.5              0.0625
       29                 0.5                   0                 0.5             0.03125
       30                   0                0.75                 0.5              0.0625
       31                0.75                0.75                 0.5              0.0625
       32                 0.5                0.75                 0.5              0.0625
       33                0.25                0.75                 0.5              0.0625
       34                   0                 0.5                 0.5             0.03125
       35                0.75                 0.5                 0.5              0.0625
       36                 0.5                 0.5                 0.5             0.03125
 DONE : INIT K-POINTS Time : 0.037503 (SEC)





 >>>>>>>>>>>>>>>>>>>>>>>>>>>>>>>>>>>>>>>>>>>>>>>>>>>>>>>>>>>>>>>>>>>>>>
 |                                                                    |
 | Setup plane waves of wave functions:                               |
 | Use the energy cutoff and the lattice vectors to generate the      |
 | dimensions of FFT grid. The number of FFT grid on each processor   |
 | is 'nrxx'. The number of plane wave basis in reciprocal space is   |
 | different for charege/potential and wave functions. We also set    |
 | the 'sticks' for the parallel of FFT. The number of plane wave of  |
 | each k-point is 'npwk[ik]' in each processor                       |
 <<<<<<<<<<<<<<<<<<<<<<<<<<<<<<<<<<<<<<<<<<<<<<<<<<<<<<<<<<<<<<<<<<<<<<





 SETUP PLANE WAVES FOR WAVE FUNCTIONS
     energy cutoff for wavefunc (unit:Ry) = 20
            [fft grid for wave functions] = 24, 24, 24
                    number of plane waves = 1309
                         number of sticks = 145

 PARALLEL PW FOR WAVE FUNCTIONS
     PROC   COLUMNS(POT)             PW
        1             71            655
        2             74            654
 --------------- sum -------------------
        2            145           1309
 DONE : INIT PLANEWAVE Time : 0.0398468 (SEC)

 DONE : INIT CHARGE Time : 0.0471485 (SEC)

                                 init_chg = atomic
 DONE : INIT POTENTIAL Time : 0.0807721 (SEC)





 >>>>>>>>>>>>>>>>>>>>>>>>>>>>>>>>>>>>>>>>>>>>>>>>>>>>>>>>>>>>>>>>>>>>>>
 |                                                                    |
 | Setup numerical orbitals:                                          |
 | This part setup: numerical atomic orbitals, non-local projectors   |
 | and neutral potential (1D). The atomic orbitals information        |
 | including the radius, angular momentum and zeta number.            |
 | The neutral potential is the sum of local part of pseudopotential  |
 | and potential given by atomic charge, they will cancel out beyond  |
 | a certain radius cutoff, because the Z/r character.                |
 |                                                                    |
 <<<<<<<<<<<<<<<<<<<<<<<<<<<<<<<<<<<<<<<<<<<<<<<<<<<<<<<<<<<<<<<<<<<<<<





 SETUP ONE DIMENSIONAL ORBITALS/POTENTIAL
                        delta k  (1/Bohr) = 0.01
                        delta r    (Bohr) = 0.01
                        dr_uniform (Bohr) = 0.001
                        rmax       (Bohr) = 30
                                    kmesh = 451
      ORBITAL  L  N      nr      dr    RCUT  CHECK_UNIT    NEW_UNIT
            1  0  0    1001    0.01      10           1           1
            2  0  1    1001    0.01      10           1           1
            3  0  2    1001    0.01      10           1           1
            4  1  0    1001    0.01      10           1           1
            5  1  1    1001    0.01      10           1           1
            6  1  2    1001    0.01      10           1           1
            7  2  0    1001    0.01      10           1           1
            8  2  1    1001    0.01      10           1           1
 SET NONLOCAL PSEUDOPOTENTIAL PROJECTORS
 max number of nonlocal projetors among all species is 6

 SETUP THE TWO-CENTER INTEGRATION TABLES

 SETUP THE DIVISION OF H/S MATRIX
 divide the H&S matrix using 2D block algorithms.
                                     nb2d = 1
                  trace_loc_row dimension = 88
                  trace_loc_col dimension = 88
                                     nloc = 3872

 -------------------------------------------
 SELF-CONSISTENT
 -------------------------------------------




 >>>>>>>>>>>>>>>>>>>>>>>>>>>>>>>>>>>>>>>>>>>>>>>>>>>>>>>>>>>>>>>>>>>>>>
 |                                                                    |
 | Search adjacent atoms:                                             |
 | Set the adjacent atoms for each atom and set the periodic boundary |
 | condition for the atoms on real space FFT grid. For k-dependent    |
 | algorithm, we also need to set the sparse H and S matrix element   |
 | for each atom.                                                     |
 |                                                                    |
 <<<<<<<<<<<<<<<<<<<<<<<<<<<<<<<<<<<<<<<<<<<<<<<<<<<<<<<<<<<<<<<<<<<<<<





 SETUP SEARCHING RADIUS FOR PROGRAM TO SEARCH ADJACENT ATOMS
                  longest orb rcut (Bohr) = 10
   longest nonlocal projector rcut (Bohr) = 1.78
              searching radius is (Bohr)) = 23.6
         searching radius unit is (Bohr)) = 1.89

 SETUP EXTENDED REAL SPACE GRID FOR GRID INTEGRATION
                        [real space grid] = 24, 24, 24
               [big cell numbers in grid] = 12, 12, 12
           [meshcell numbers in big cell] = 2, 2, 2
                      [extended fft grid] = 16, 16, 16
              [dimension of extened grid] = 45, 45, 45
                            UnitCellTotal = 125
              Atom number in sub-FFT-grid = 4
    Local orbitals number in sub-FFT-grid = 88
                                ParaV.nnr = 322344
                                     nnrg = 621456
                                nnrg_last = -1918043049
                                 nnrg_now = 621456

 LCAO ALGORITHM --------------- ION=   1  ELEC=   1--------------------------------
 Memory of pvpR : 4.74 MB

 Density error is 0.0973054085997

       Energy                       Rydberg                            eV
   E_KohnSham                 -18.516954913                -251.936096426
     E_Harris                -18.5229483372                -252.017641145
      E_Fermi               +0.548998005745                +7.46950106876

 LCAO ALGORITHM --------------- ION=   1  ELEC=   2--------------------------------
 Memory of pvpR : 4.74133300781 MB

 Density error is 0.0257897721061

       Energy                       Rydberg                            eV
   E_KohnSham                -18.5167087244                -251.932746859
     E_Harris                -18.5171660174                -251.938968649
      E_Fermi               +0.546682210741                +7.43799306132

 LCAO ALGORITHM --------------- ION=   1  ELEC=   3--------------------------------
 Memory of pvpR : 4.74133300781 MB

 Density error is 0.000641398683843

       Energy                       Rydberg                            eV
   E_KohnSham                -18.5167377936                -251.933142365
     E_Harris                -18.5167377247                -251.933141428
      E_Fermi               +0.546119170665                +7.43033250808

 LCAO ALGORITHM --------------- ION=   1  ELEC=   4--------------------------------
 Memory of pvpR : 4.74133300781 MB

 Density error is 4.06560637177e-05

       Energy                       Rydberg                            eV
   E_KohnSham                -18.5167377885                -251.933142295
     E_Harris                 -18.516737789                -251.933142303
      E_Fermi               +0.546138462475                +7.43059498663

 LCAO ALGORITHM --------------- ION=   1  ELEC=   5--------------------------------
 Memory of pvpR : 4.74133300781 MB

 Density error is 3.66013042795e-06

       Energy                       Rydberg                            eV
   E_KohnSham                -18.5167377888                  -251.9331423
     E_Harris                -18.5167377888                  -251.9331423
      E_Fermi               +0.546137811916                +7.43058613531

 LCAO ALGORITHM --------------- ION=   1  ELEC=   6--------------------------------
 Memory of pvpR : 4.74133300781 MB

 Density error is 2.59103464997e-08

       Energy                       Rydberg                            eV
   E_KohnSham                -18.5167377888                  -251.9331423
     E_Harris                -18.5167377888                  -251.9331423
      E_Fermi               +0.546137844262                 +7.4305865754

 LCAO ALGORITHM --------------- ION=   1  ELEC=   7--------------------------------
 Memory of pvpR : 4.74133300781 MB

 Density error is 5.08409672374e-10

       Energy                       Rydberg                            eV
   E_KohnSham                -18.5167377889                -251.933142301
     E_Harris                -18.5167377889                -251.933142301
       E_band                +2.98578908286                +40.6237445531
   E_one_elec                 +11.556170399                +157.229764486
    E_Hartree               +0.028454019965                +0.38713680253
         E_xc                -8.62531980903                -117.353496475
      E_Ewald                -21.4733280062                -292.159615907
      E_demet             -0.00271439270437              -0.0369312073891
      E_descf                            +0                            +0
     E_efield                            +0                            +0
        E_exx                            +0                            +0
      E_Fermi               +0.546137844023                +7.43058657215

 charge density convergence is achieved
 final etot is -251.933142301 eV

 STATE ENERGY(eV) AND OCCUPATIONS    NSPIN == 1
 1/36 kpoint (Cartesian) = 0 0 0 (334 pws)
       1       -3.26607      0.0312500
       2        4.89767      0.0312500
       3        4.89767      0.0312500
       4        4.89767      0.0312500
       5        6.14349      0.0312500
       6        6.14349      0.0312500
       7        6.14349      0.0312500
       8        13.0349        0.00000
       9        13.0349        0.00000
      10        13.0349        0.00000
      11        13.4091        0.00000
      12        13.4091        0.00000
      13        13.4091        0.00000
      14        13.4091        0.00000
      15        13.4091        0.00000
      16        13.4091        0.00000

 2/36 kpoint (Cartesian) = 0.184387 0.00000 0.00000 (320 pws)
       1       -2.70957      0.0625000
       2        1.68313      0.0625000
       3        5.40650      0.0625000
       4        5.40650      0.0625000
       5        6.69298      0.0625000
       6        6.69298      0.0625000
       7        9.54543        0.00000
       8        9.54543        0.00000
       9        10.3616        0.00000
      10        11.0235        0.00000
      11        11.0235        0.00000
      12        13.6507        0.00000
      13        13.8629        0.00000
      14        13.8629        0.00000
      15        17.4148        0.00000
      16        17.6943        0.00000

 3/36 kpoint (Cartesian) = 0.122925 0.00000 0.00000 (332 pws)
       1       -1.04647      0.0312500
       2       -1.04647      0.0312500
       3        6.95321      0.0312500
       4        6.95321      0.0312500
       5        6.95321      0.0312500
       6        6.95321      0.0312500
       7        7.97391    2.54389e-10
       8        7.97391    2.54389e-10
       9        8.79739        0.00000
      10        8.79739        0.00000
      11        15.3062        0.00000
      12        15.3062        0.00000
      13        15.3062        0.00000
      14        15.3062        0.00000
      15        15.5420        0.00000
      16        15.5420        0.00000

 4/36 kpoint (Cartesian) = 0.00000 0.184387 0.00000 (331 pws)
       1       -2.70957      0.0625000
       2        1.68313      0.0625000
       3        5.40650      0.0625000
       4        5.40650      0.0625000
       5        6.69298      0.0625000
       6        6.69298      0.0625000
       7        9.54543        0.00000
       8        9.54543        0.00000
       9        10.3616        0.00000
      10        11.0235        0.00000
      11        11.0235        0.00000
      12        13.6507        0.00000
      13        13.8629        0.00000
      14        13.8629        0.00000
      15        17.4148        0.00000
      16        17.6943        0.00000

 5/36 kpoint (Cartesian) = 0.184387 0.184387 0.00000 (325 pws)
       1       -2.15325      0.0625000
       2        2.22387      0.0625000
       3        2.22387      0.0625000
       4        5.91199      0.0625000
       5        6.43910      0.0625000
       6        7.34211      0.0513206
       7        10.0609        0.00000
       8        10.0609        0.00000
       9        10.8001        0.00000
      10        10.8001        0.00000
      11        11.6324        0.00000
      12        11.6324        0.00000
      13        14.3330        0.00000
      14        14.3528        0.00000
      15        15.5137        0.00000
      16        16.1097        0.00000

 6/36 kpoint (Cartesian) = 0.122925 0.184387 0.00000 (320 pws)
       1      -0.495603      0.0625000
       2      -0.495603      0.0625000
       3        3.83627      0.0625000
       4        3.83627      0.0625000
       5        7.45969      0.0238196
       6        7.45969      0.0238196
       7        8.91904        0.00000
       8        8.91904        0.00000
       9        11.6409        0.00000
      10        11.6409        0.00000
      11        12.5013        0.00000
      12        12.5013        0.00000
      13        13.0461        0.00000
      14        13.0461        0.00000
      15        16.6676        0.00000
      16        16.6676        0.00000

 7/36 kpoint (Cartesian) = 0.0614624 0.184387 0.00000 (322 pws)
       1       -2.15325      0.0625000
       2        2.22387      0.0625000
       3        2.22387      0.0625000
       4        5.91199      0.0625000
       5        6.43910      0.0625000
       6        7.34211      0.0513206
       7        10.0609        0.00000
       8        10.0609        0.00000
       9        10.8001        0.00000
      10        10.8001        0.00000
      11        11.6324        0.00000
      12        11.6324        0.00000
      13        14.3330        0.00000
      14        14.3528        0.00000
      15        15.5137        0.00000
      16        16.1097        0.00000

 8/36 kpoint (Cartesian) = 0.00000 0.122925 0.00000 (330 pws)
       1       -1.04647      0.0312500
       2       -1.04647      0.0312500
       3        6.95321      0.0312500
       4        6.95321      0.0312500
       5        6.95321      0.0312500
       6        6.95321      0.0312500
       7        7.97391    2.54389e-10
       8        7.97391    2.54389e-10
       9        8.79739        0.00000
      10        8.79739        0.00000
      11        15.3062        0.00000
      12        15.3062        0.00000
      13        15.3062        0.00000
      14        15.3062        0.00000
      15        15.5420        0.00000
      16        15.5420        0.00000

 9/36 kpoint (Cartesian) = 0.184387 0.122925 0.00000 (315 pws)
       1      -0.495603      0.0625000
       2      -0.495603      0.0625000
       3        3.83627      0.0625000
       4        3.83627      0.0625000
       5        7.45969      0.0238196
       6        7.45969      0.0238196
       7        8.91904        0.00000
       8        8.91904        0.00000
       9        11.6409        0.00000
      10        11.6409        0.00000
      11        12.5013        0.00000
      12        12.5013        0.00000
      13        13.0461        0.00000
      14        13.0461        0.00000
      15        16.6676        0.00000
      16        16.6676        0.00000

 10/36 kpoint (Cartesian) = 0.122925 0.122925 0.00000 (317 pws)
       1        1.14493      0.0312500
       2        1.14493      0.0312500
       3        1.14493      0.0312500
       4        1.14493      0.0312500
       5        9.01495        0.00000
       6        9.01495        0.00000
       7        9.01495        0.00000
       8        9.01495        0.00000
       9        10.5279        0.00000
      10        10.5279        0.00000
      11        10.5279        0.00000
      12        10.5279        0.00000
      13        17.2415        0.00000
      14        17.2415        0.00000
      15        17.2415        0.00000
      16        17.2415        0.00000

 11/36 kpoint (Cartesian) = 0.00000 0.00000 0.184387 (335 pws)
       1       -2.70957      0.0625000
       2        1.68313      0.0625000
       3        5.40650      0.0625000
       4        5.40650      0.0625000
       5        6.69298      0.0625000
       6        6.69298      0.0625000
       7        9.54543        0.00000
       8        9.54543        0.00000
       9        10.3616        0.00000
      10        11.0235        0.00000
      11        11.0235        0.00000
      12        13.6507        0.00000
      13        13.8629        0.00000
      14        13.8629        0.00000
      15        17.4148        0.00000
      16        17.6943        0.00000

 12/36 kpoint (Cartesian) = 0.184387 0.00000 0.184387 (326 pws)
       1       -2.15325      0.0625000
       2        2.22387      0.0625000
       3        2.22387      0.0625000
       4        5.91199      0.0625000
       5        6.43910      0.0625000
       6        7.34211      0.0513206
       7        10.0609        0.00000
       8        10.0609        0.00000
       9        10.8001        0.00000
      10        10.8001        0.00000
      11        11.6324        0.00000
      12        11.6324        0.00000
      13        14.3330        0.00000
      14        14.3528        0.00000
      15        15.5137        0.00000
      16        16.1097        0.00000

 13/36 kpoint (Cartesian) = 0.122925 0.00000 0.184387 (333 pws)
       1      -0.495603      0.0625000
       2      -0.495603      0.0625000
       3        3.83627      0.0625000
       4        3.83627      0.0625000
       5        7.45969      0.0238196
       6        7.45969      0.0238196
       7        8.91904        0.00000
       8        8.91904        0.00000
       9        11.6409        0.00000
      10        11.6409        0.00000
      11        12.5013        0.00000
      12        12.5013        0.00000
      13        13.0461        0.00000
      14        13.0461        0.00000
      15        16.6676        0.00000
      16        16.6676        0.00000

 14/36 kpoint (Cartesian) = 0.0614624 0.00000 0.184387 (335 pws)
       1       -2.15325      0.0625000
       2        2.22387      0.0625000
       3        2.22387      0.0625000
       4        5.91199      0.0625000
       5        6.43910      0.0625000
       6        7.34211      0.0513206
       7        10.0609        0.00000
       8        10.0609        0.00000
       9        10.8001        0.00000
      10        10.8001        0.00000
      11        11.6324        0.00000
      12        11.6324        0.00000
      13        14.3330        0.00000
      14        14.3528        0.00000
      15        15.5137        0.00000
      16        16.1097        0.00000

 15/36 kpoint (Cartesian) = 0.00000 0.184387 0.184387 (331 pws)
       1       -2.15325      0.0625000
       2        2.22387      0.0625000
       3        2.22387      0.0625000
       4        5.91199      0.0625000
       5        6.43910      0.0625000
       6        7.34211      0.0513206
       7        10.0609        0.00000
       8        10.0609        0.00000
       9        10.8001        0.00000
      10        10.8001        0.00000
      11        11.6324        0.00000
      12        11.6324        0.00000
      13        14.3330        0.00000
      14        14.3528        0.00000
      15        15.5137        0.00000
      16        16.1097        0.00000

 16/36 kpoint (Cartesian) = 0.184387 0.184387 0.184387 (321 pws)
       1       -1.59853      0.0625000
       2        2.76115      0.0625000
       3        2.76115      0.0625000
       4        2.76115      0.0625000
       5        7.02434      0.0624992
       6        7.02434      0.0624992
       7        7.02434      0.0624992
       8        11.2137        0.00000
       9        11.4506        0.00000
      10        11.4506        0.00000
      11        11.4506        0.00000
      12        14.8536        0.00000
      13        14.8536        0.00000
      14        14.8536        0.00000
      15        16.7162        0.00000
      16        16.7162        0.00000

 17/36 kpoint (Cartesian) = 0.122925 0.184387 0.184387 (320 pws)
       1      0.0534710      0.0625000
       2      0.0534710      0.0625000
       3        4.27222      0.0625000
       4        4.27222      0.0625000
       5        4.47598      0.0625000
       6        4.47598      0.0625000
       7        8.59671        0.00000
       8        8.59671        0.00000
       9        12.8652        0.00000
      10        12.8652        0.00000
      11        13.1905        0.00000
      12        13.1905        0.00000
      13        16.3153        0.00000
      14        16.3153        0.00000
      15        17.1433        0.00000
      16        17.1433        0.00000

 18/36 kpoint (Cartesian) = 0.0614624 0.184387 0.184387 (328 pws)
       1       -1.59853      0.0625000
       2        2.76115      0.0625000
       3        2.76115      0.0625000
       4        2.76115      0.0625000
       5        7.02434      0.0624992
       6        7.02434      0.0624992
       7        7.02434      0.0624992
       8        11.2137        0.00000
       9        11.4506        0.00000
      10        11.4506        0.00000
      11        11.4506        0.00000
      12        14.8536        0.00000
      13        14.8536        0.00000
      14        14.8536        0.00000
      15        16.7162        0.00000
      16        16.7162        0.00000

 19/36 kpoint (Cartesian) = 0.00000 0.122925 0.184387 (329 pws)
       1      -0.495603      0.0625000
       2      -0.495603      0.0625000
       3        3.83627      0.0625000
       4        3.83627      0.0625000
       5        7.45969      0.0238196
       6        7.45969      0.0238196
       7        8.91904        0.00000
       8        8.91904        0.00000
       9        11.6409        0.00000
      10        11.6409        0.00000
      11        12.5013        0.00000
      12        12.5013        0.00000
      13        13.0461        0.00000
      14        13.0461        0.00000
      15        16.6676        0.00000
      16        16.6676        0.00000

 20/36 kpoint (Cartesian) = 0.184387 0.122925 0.184387 (318 pws)
       1      0.0534710      0.0625000
       2      0.0534710      0.0625000
       3        4.27222      0.0625000
       4        4.27222      0.0625000
       5        4.47598      0.0625000
       6        4.47598      0.0625000
       7        8.59671        0.00000
       8        8.59671        0.00000
       9        12.8652        0.00000
      10        12.8652        0.00000
      11        13.1905        0.00000
      12        13.1905        0.00000
      13        16.3153        0.00000
      14        16.3153        0.00000
      15        17.1433        0.00000
      16        17.1433        0.00000

 21/36 kpoint (Cartesian) = 0.122925 0.122925 0.184387 (313 pws)
       1        1.68794      0.0625000
       2        1.68794      0.0625000
       3        1.68794      0.0625000
       4        1.68794      0.0625000
       5        5.97358      0.0625000
       6        5.97358      0.0625000
       7        5.97358      0.0625000
       8        5.97358      0.0625000
       9        14.5825        0.00000
      10        14.5825        0.00000
      11        14.5825        0.00000
      12        14.5825        0.00000
      13        17.7325        0.00000
      14        17.7325        0.00000
      15        17.7325        0.00000
      16        17.7325        0.00000

 22/36 kpoint (Cartesian) = 0.0614624 0.122925 0.184387 (313 pws)
       1      0.0534710      0.0625000
       2      0.0534710      0.0625000
       3        4.27222      0.0625000
       4        4.27222      0.0625000
       5        4.47598      0.0625000
       6        4.47598      0.0625000
       7        8.59671        0.00000
       8        8.59671        0.00000
       9        12.8652        0.00000
      10        12.8652        0.00000
      11        13.1905        0.00000
      12        13.1905        0.00000
      13        16.3153        0.00000
      14        16.3153        0.00000
      15        17.1433        0.00000
      16        17.1433        0.00000

 23/36 kpoint (Cartesian) = 0.00000 0.0614624 0.184387 (331 pws)
       1       -2.15325      0.0625000
       2        2.22387      0.0625000
       3        2.22387      0.0625000
       4        5.91199      0.0625000
       5        6.43910      0.0625000
       6        7.34211      0.0513206
       7        10.0609        0.00000
       8        10.0609        0.00000
       9        10.8001        0.00000
      10        10.8001        0.00000
      11        11.6324        0.00000
      12        11.6324        0.00000
      13        14.3330        0.00000
      14        14.3528        0.00000
      15        15.5137        0.00000
      16        16.1097        0.00000

 24/36 kpoint (Cartesian) = 0.184387 0.0614624 0.184387 (324 pws)
       1       -1.59853      0.0625000
       2        2.76115      0.0625000
       3        2.76115      0.0625000
       4        2.76115      0.0625000
       5        7.02434      0.0624992
       6        7.02434      0.0624992
       7        7.02434      0.0624992
       8        11.2137        0.00000
       9        11.4506        0.00000
      10        11.4506        0.00000
      11        11.4506        0.00000
      12        14.8536        0.00000
      13        14.8536        0.00000
      14        14.8536        0.00000
      15        16.7162        0.00000
      16        16.7162        0.00000

 25/36 kpoint (Cartesian) = 0.122925 0.0614624 0.184387 (323 pws)
       1      0.0534710      0.0625000
       2      0.0534710      0.0625000
       3        4.27222      0.0625000
       4        4.27222      0.0625000
       5        4.47598      0.0625000
       6        4.47598      0.0625000
       7        8.59671        0.00000
       8        8.59671        0.00000
       9        12.8652        0.00000
      10        12.8652        0.00000
      11        13.1905        0.00000
      12        13.1905        0.00000
      13        16.3153        0.00000
      14        16.3153        0.00000
      15        17.1433        0.00000
      16        17.1433        0.00000

 26/36 kpoint (Cartesian) = 0.0614624 0.0614624 0.184387 (331 pws)
       1       -1.59853      0.0625000
       2        2.76115      0.0625000
       3        2.76115      0.0625000
       4        2.76115      0.0625000
       5        7.02434      0.0624992
       6        7.02434      0.0624992
       7        7.02434      0.0624992
       8        11.2137        0.00000
       9        11.4506        0.00000
      10        11.4506        0.00000
      11        11.4506        0.00000
      12        14.8536        0.00000
      13        14.8536        0.00000
      14        14.8536        0.00000
      15        16.7162        0.00000
      16        16.7162        0.00000

 27/36 kpoint (Cartesian) = 0.00000 0.00000 0.122925 (332 pws)
       1       -1.04647      0.0312500
       2       -1.04647      0.0312500
       3        6.95321      0.0312500
       4        6.95321      0.0312500
       5        6.95321      0.0312500
       6        6.95321      0.0312500
       7        7.97391    2.54389e-10
       8        7.97391    2.54389e-10
       9        8.79739        0.00000
      10        8.79739        0.00000
      11        15.3062        0.00000
      12        15.3062        0.00000
      13        15.3062        0.00000
      14        15.3062        0.00000
      15        15.5420        0.00000
      16        15.5420        0.00000

 28/36 kpoint (Cartesian) = 0.184387 0.00000 0.122925 (328 pws)
       1      -0.495603      0.0625000
       2      -0.495603      0.0625000
       3        3.83627      0.0625000
       4        3.83627      0.0625000
       5        7.45969      0.0238196
       6        7.45969      0.0238196
       7        8.91904        0.00000
       8        8.91904        0.00000
       9        11.6409        0.00000
      10        11.6409        0.00000
      11        12.5013        0.00000
      12        12.5013        0.00000
      13        13.0461        0.00000
      14        13.0461        0.00000
      15        16.6676        0.00000
      16        16.6676        0.00000

 29/36 kpoint (Cartesian) = 0.122925 0.00000 0.122925 (324 pws)
       1        1.14493      0.0312500
       2        1.14493      0.0312500
       3        1.14493      0.0312500
       4        1.14493      0.0312500
       5        9.01495        0.00000
       6        9.01495        0.00000
       7        9.01495        0.00000
       8        9.01495        0.00000
       9        10.5279        0.00000
      10        10.5279        0.00000
      11        10.5279        0.00000
      12        10.5279        0.00000
      13        17.2415        0.00000
      14        17.2415        0.00000
      15        17.2415        0.00000
      16        17.2415        0.00000

 30/36 kpoint (Cartesian) = 0.00000 0.184387 0.122925 (338 pws)
       1      -0.495603      0.0625000
       2      -0.495603      0.0625000
       3        3.83627      0.0625000
       4        3.83627      0.0625000
       5        7.45969      0.0238196
       6        7.45969      0.0238196
       7        8.91904        0.00000
       8        8.91904        0.00000
       9        11.6409        0.00000
      10        11.6409        0.00000
      11        12.5013        0.00000
      12        12.5013        0.00000
      13        13.0461        0.00000
      14        13.0461        0.00000
      15        16.6676        0.00000
      16        16.6676        0.00000

 31/36 kpoint (Cartesian) = 0.184387 0.184387 0.122925 (312 pws)
       1      0.0534710      0.0625000
       2      0.0534710      0.0625000
       3        4.27222      0.0625000
       4        4.27222      0.0625000
       5        4.47598      0.0625000
       6        4.47598      0.0625000
       7        8.59671        0.00000
       8        8.59671        0.00000
       9        12.8652        0.00000
      10        12.8652        0.00000
      11        13.1905        0.00000
      12        13.1905        0.00000
      13        16.3153        0.00000
      14        16.3153        0.00000
      15        17.1433        0.00000
      16        17.1433        0.00000

 32/36 kpoint (Cartesian) = 0.122925 0.184387 0.122925 (316 pws)
       1        1.68794      0.0625000
       2        1.68794      0.0625000
       3        1.68794      0.0625000
       4        1.68794      0.0625000
       5        5.97358      0.0625000
       6        5.97358      0.0625000
       7        5.97358      0.0625000
       8        5.97358      0.0625000
       9        14.5825        0.00000
      10        14.5825        0.00000
      11        14.5825        0.00000
      12        14.5825        0.00000
      13        17.7325        0.00000
      14        17.7325        0.00000
      15        17.7325        0.00000
      16        17.7325        0.00000

 33/36 kpoint (Cartesian) = 0.0614624 0.184387 0.122925 (322 pws)
       1      0.0534710      0.0625000
       2      0.0534710      0.0625000
       3        4.27222      0.0625000
       4        4.27222      0.0625000
       5        4.47598      0.0625000
       6        4.47598      0.0625000
       7        8.59671        0.00000
       8        8.59671        0.00000
       9        12.8652        0.00000
      10        12.8652        0.00000
      11        13.1905        0.00000
      12        13.1905        0.00000
      13        16.3153        0.00000
      14        16.3153        0.00000
      15        17.1433        0.00000
      16        17.1433        0.00000

 34/36 kpoint (Cartesian) = 0.00000 0.122925 0.122925 (324 pws)
       1        1.14493      0.0312500
       2        1.14493      0.0312500
       3        1.14493      0.0312500
       4        1.14493      0.0312500
       5        9.01495        0.00000
       6        9.01495        0.00000
       7        9.01495        0.00000
       8        9.01495        0.00000
       9        10.5279        0.00000
      10        10.5279        0.00000
      11        10.5279        0.00000
      12        10.5279        0.00000
      13        17.2415        0.00000
      14        17.2415        0.00000
      15        17.2415        0.00000
      16        17.2415        0.00000

 35/36 kpoint (Cartesian) = 0.184387 0.122925 0.122925 (314 pws)
       1        1.68794      0.0625000
       2        1.68794      0.0625000
       3        1.68794      0.0625000
       4        1.68794      0.0625000
       5        5.97358      0.0625000
       6        5.97358      0.0625000
       7        5.97358      0.0625000
       8        5.97358      0.0625000
       9        14.5825        0.00000
      10        14.5825        0.00000
      11        14.5825        0.00000
      12        14.5825        0.00000
      13        17.7325        0.00000
      14        17.7325        0.00000
      15        17.7325        0.00000
      16        17.7325        0.00000

 36/36 kpoint (Cartesian) = 0.122925 0.122925 0.122925 (314 pws)
       1        3.23964      0.0312500
       2        3.23964      0.0312500
       3        3.23964      0.0312500
       4        3.23964      0.0312500
       5        3.38279      0.0312500
       6        3.38279      0.0312500
       7        3.38279      0.0312500
       8        3.38279      0.0312500
       9        19.1800        0.00000
      10        19.1800        0.00000
      11        19.1800        0.00000
      12        19.1800        0.00000
      13        19.1800        0.00000
      14        19.1800        0.00000
      15        19.1800        0.00000
      16        19.1800        0.00000

 EFERMI = 7.430586572153892 eV
 OUT.ABACUS/ final etot is -251.9331423009206 eV
 correction force for each atom along direction 1 is 1.96744e-15
 correction force for each atom along direction 2 is -1.44450e-16
 correction force for each atom along direction 3 is -3.54147e-16

 ><><><><><><><><><><><><><><><><><><><><><><

    TOTAL-FORCE (eV/Angstrom)

 ><><><><><><><><><><><><><><><><><><><><><><

     atom              x              y              z
      Al1              0              0              0
      Al2              0              0              0
      Al3              0              0              0
      Al4              0              0              0


 ><><><><><><><><><><><><><><><><><><><><><><

 TOTAL-STRESS (KBAR)

 ><><><><><><><><><><><><><><><><><><><><><><

       -0.073861      -0.000000      -0.000000
       -0.000000      -0.073861      +0.000000
       -0.000000      +0.000000      -0.073861
 TOTAL-PRESSURE: -0.073861 KBAR


 --------------------------------------------
 !FINAL_ETOT_IS -251.9331423009206219 eV
 --------------------------------------------






  |CLASS_NAME---------|NAME---------------|TIME(Sec)-----|CALLS----|AVG------|PER%-------
                                      total      +27.76847        11     +2.52   +100.00%
               Run_lcao           lcao_line      +27.76171         1    +27.76    +99.98%
            ORB_control      read_orb_first       +0.26211         1     +0.26     +0.94%
          LCAO_Orbitals       Read_Orbitals       +0.26210         1     +0.26     +0.94%
            NOrbital_Lm       extra_uniform       +0.15429         8     +0.02     +0.56%
          Mathzone_Add1       Uni_Deriv_Phi       +0.14685         8     +0.02     +0.53%
            ORB_control      set_orb_tables       +0.90865         1     +0.91     +3.27%
         ORB_gen_tables          gen_tables       +0.90865         1     +0.91     +3.27%
          ORB_table_phi          init_Table       +0.59751         1     +0.60     +2.15%
          ORB_table_phi      cal_ST_Phi12_R       +0.58730       186     +0.00     +2.11%
         ORB_table_beta     init_Table_Beta       +0.20667         1     +0.21     +0.74%
         ORB_table_beta       VNL_PhiBeta_R       +0.20409        72     +0.00     +0.73%
              LOOP_ions            opt_ions      +26.37421         1    +26.37    +94.98%
        ESolver_KS_LCAO                 Run      +14.99977         1    +15.00    +54.02%
        ESolver_KS_LCAO           beforescf       +1.08497         1     +1.08     +3.91%
        ESolver_KS_LCAO        beforesolver       +0.64074         1     +0.64     +2.31%
            LCAO_Hamilt   set_lcao_matrices       +0.61711         1     +0.62     +2.22%
        LCAO_gen_fixedHbuild_Nonlocal_mu_new       +2.44804         2     +1.22     +8.82%
         ORB_gen_tables   snap_psibeta_half       +0.11268     14520     +0.00     +0.41%
             H_Ewald_pw       compute_ewald       +0.44418         1     +0.44     +1.60%
            HSolverLCAO               solve      +13.80440         7     +1.97    +49.71%
             HamiltLCAO              each_k       +5.54759       252     +0.02    +19.98%
         Gint_interface            cal_gint      +10.32970        15     +0.69    +37.20%
             HamiltLCAO                 H_k       +2.10699       126     +0.02     +7.59%
            LCAO_Hamilt        calculate_Hk       +2.43276       252     +0.01     +8.76%
                 Gint_k        folding_vl_k       +0.71464       252     +0.00     +2.57%
                 Gint_k              Distri       +0.42947       252     +0.00     +1.55%
               LCAO_nnr      folding_fixedH       +1.71068       252     +0.01     +6.16%
             Efficience                 H_k       +1.76817       126     +0.01     +6.37%
              DiagoElpa          elpa_solve       +1.37123       252     +0.01     +4.94%
          ElecStateLCAO            psiToRho       +4.42342         7     +0.63    +15.93%
            LCAO_Charge            cal_dk_k       +0.68817         7     +0.10     +2.48%
              LOOP_ions        force_stress      +11.37271         1    +11.37    +40.96%
      Force_Stress_LCAO      getForceStress      +11.37259         1    +11.37    +40.96%
           Force_LCAO_k            ftable_k      +11.33003         1    +11.33    +40.80%
           Force_LCAO_k          allocate_k       +3.56610         1     +3.57    +12.84%
           Force_LCAO_k      cal_fvl_dphi_k       +1.47870         1     +1.48     +5.33%
           Force_LCAO_kcal_fvnl_dbeta_k_new       +5.83763         1     +5.84    +21.02%
 ----------------------------------------------------------------------------------------

 CLASS_NAME---------|NAME---------------|MEMORY(MB)--------
                                         +1597.6075
        ORB_table_phi               Jl(x)       +62.0387
            stress_lo                 dSR       +14.7557
             force_lo                  dS        +7.3779
             force_lo               dTVNL        +7.3779
  LocalOrbital_Charge      Density_Matrix        +4.7413
        allocate_pvpR        pvpR_reduced        +4.7413
        ORB_table_phi         Table_SR&TR        +3.9160
         Force_LCAO_k                dm2d        +2.4593
 ----------------------------------------------------------

 Start  Time  : Thu Jul 28 16:21:05 2022
 Finish Time  : Thu Jul 28 16:21:33 2022
 Total  Time  : 0 h 0 mins 28 secs 
